<?xml version="1.0" encoding="UTF-8"?>

<!-- generated on 2024-08-23 13:15:13 by Eclipse SUMO sumo Version 1.20.0
<configuration xmlns:xsi="http://www.w3.org/2001/XMLSchema-instance" xsi:noNamespaceSchemaLocation="http://sumo.dlr.de/xsd/sumoConfiguration.xsd">

    <input>
        <net-file value="kharagpur.net.xml"/>
        <route-files value="your_routes.xml"/>
    </input>

    <output>
        <tripinfo-output value="tripinfo.xml"/>
    </output>

    <report>
        <verbose value="true"/>
    </report>

</configuration>
-->

<tripinfos xmlns:xsi="http://www.w3.org/2001/XMLSchema-instance" xsi:noNamespaceSchemaLocation="http://sumo.dlr.de/xsd/tripinfo_file.xsd">
    <tripinfo id="0_1" depart="0.00" from="371064289#0" to="-10228390361#1" duration="100.00" endTime="100.00"/>
    <tripinfo id="0_2" depart="100.00" from="10228390361#1" to="-371064300#4" duration="100.00" endTime="200.00"/>
    <tripinfo id="0_3" depart="200.00" from="371064300#4" to="-1025078017" duration="100.00" endTime="300.00"/>
    <tripinfo id="0_4" depart="300.00" from="1025078017" to="-1025054399#3" duration="100.00" endTime="400.00"/>
</tripinfos>
